
  ___ ___ ___ _ _ _  
 |   |   |_  | | | | 
 | | | | | . | | | | 
 |__ |  _|___|_____|  25.1.0
 |___|_|             

User:   aryanshukla@tech-Precision-3650-Tower
Date:   Thu Jul  3 14:48:36 2025
Arch:   x86_64
Pid:    1035534
CWD:    /home/aryanshukla/Desktop/Experiments/Crystals
Python: 3.12.9
gpaw:   /home/aryanshukla/Desktop/Experiments/exps/lib/python3.12/site-packages/gpaw
_gpaw:  /home/aryanshukla/Desktop/Experiments/exps/lib/python3.12/site-packages/
        _gpaw.cpython-312-x86_64-linux-gnu.so
ase:    /home/aryanshukla/Desktop/Experiments/exps/lib/python3.12/site-packages/ase (version 3.24.0)
numpy:  /home/aryanshukla/Desktop/Experiments/exps/lib/python3.12/site-packages/numpy (version 2.2.4)
scipy:  /home/aryanshukla/Desktop/Experiments/exps/lib/python3.12/site-packages/scipy (version 1.15.2)
libxc:  4.3.4
units:  Angstrom and eV
cores: 1
OpenMP: False
OMP_NUM_THREADS: 1

Input parameters:
  kpts: [1 1 1]
  mode: {ecut: 150.0,
         name: pw}

Memory usage: 618.82 MiB
Date: Thu Jul  3 14:51:59 2025
