
  ___ ___ ___ _ _ _  
 |   |   |_  | | | | 
 | | | | | . | | | | 
 |__ |  _|___|_____|  25.1.0
 |___|_|             

User:   aryanshukla@tech-Precision-3650-Tower
Date:   Thu Jul  3 14:51:59 2025
Arch:   x86_64
Pid:    1035534
CWD:    /home/aryanshukla/Desktop/Experiments/Crystals
Python: 3.12.9
gpaw:   /home/aryanshukla/Desktop/Experiments/exps/lib/python3.12/site-packages/gpaw
_gpaw:  /home/aryanshukla/Desktop/Experiments/exps/lib/python3.12/site-packages/
        _gpaw.cpython-312-x86_64-linux-gnu.so
ase:    /home/aryanshukla/Desktop/Experiments/exps/lib/python3.12/site-packages/ase (version 3.24.0)
numpy:  /home/aryanshukla/Desktop/Experiments/exps/lib/python3.12/site-packages/numpy (version 2.2.4)
scipy:  /home/aryanshukla/Desktop/Experiments/exps/lib/python3.12/site-packages/scipy (version 1.15.2)
libxc:  4.3.4
units:  Angstrom and eV
cores: 1
OpenMP: False
OMP_NUM_THREADS: 1

Input parameters:
  kpts: [1 1 1]
  mode: {ecut: 150.0,
         name: pw}

System changes: positions, numbers, cell, pbc, initial_charges, initial_magmoms 

Initialize ...

species:
  O:
    name: Oxygen
    id: 9b9d51c344dea68c822856295a461509
    Z: 8.0
    valence: 6
    core: 2
    charge: 0.0
    file: /home/aryanshukla/PAWDATA/gpaw-setups-24.11.0/O.LDA.gz
    compensation charges: {type: gauss,
                           rc: 0.21,
                           lmax: 2}
    cutoffs: {filter: 1.17,
              core: 0.83}
    projectors:
      #              energy  rcut
      - 2s(2.00)   -23.752   0.688
      - 2p(4.00)    -9.195   0.598
      -  s           3.459   0.688
      -  p          18.016   0.598
      -  d           0.000   0.619
  
    # Using partial waves for O as LCAO basis

  H:
    name: Hydrogen
    id: 4766778ce56282eaa64abeb28b7c1de3
    Z: 1.0
    valence: 1
    core: 0
    charge: 0.0
    file: /home/aryanshukla/PAWDATA/gpaw-setups-24.11.0/H.LDA.gz
    compensation charges: {type: gauss,
                           rc: 0.15,
                           lmax: 2}
    cutoffs: {filter: 0.85,
              core: 0.53}
    projectors:
      #              energy  rcut
      - 1s(1.00)    -6.353   0.476
      -  s          20.858   0.476
      -  p           0.000   0.476
  
    # Using partial waves for H as LCAO basis

Reference energy: -2052.165985  # eV

Spin-paired calculation

Convergence criteria:
 Maximum [total energy] change in last 3 cyles: 0.0005 eV / valence electron
 Maximum integral of absolute [dens]ity change: 0.0001 electrons / valence electron
 Maximum integral of absolute [eigenst]ate change: 4e-08 eV^2 / valence electron
 Maximum number of scf [iter]ations: 333
 (Square brackets indicate name in SCF output, whereas a 'c' in
 the SCF output indicates the quantity has converged.)

Symmetries present (total): 2

  ( 1  0  0)  ( 1  0  0)
  ( 0  1  0)  ( 0  1  0)
  ( 0  0  1)  ( 0  0 -1)

1 k-point (Gamma)
1 k-point in the irreducible part of the Brillouin zone
       k-points in crystal coordinates                weights
   0:     0.00000000    0.00000000    0.00000000          1/1

Wave functions: Plane wave expansion
  Cutoff energy: 150.000 eV
  Number of coefficients: 667 (reduced to 334)
  Pulay-stress correction: 0.000000 eV/Ang^3 (de/decut=0.000000)
  Using Numpy's FFT
  ScaLapack parameters: grid=1x1, blocksize=None
  Wavefunction extrapolation:
    Improved wavefunction reuse through dual PAW basis 

Occupation numbers: # Zero width 

Eigensolver
   Davidson(niter=2) 

Densities:
  Coarse grid: 18*15*15 grid
  Fine grid: 36*30*30 grid
  Total Charge: 0.000000 

Density mixing:
  Method: separate
  Backend: pulay
  Linear mixing parameter: 0.05
  old densities: 5
  Damping of long wavelength oscillations: 50 

Hamiltonian:
  XC and Coulomb potentials evaluated on a 36*30*30 grid
  Using the LDA Exchange-Correlation functional
  External potential:
    NoExternalPotential
 

Memory estimate:
  Process memory now: 618.82 MiB
  Calculator: 2.77 MiB
    Density: 2.00 MiB
      Arrays: 0.80 MiB
      Localized functions: 0.89 MiB
      Mixer: 0.31 MiB
    Hamiltonian: 0.55 MiB
      Arrays: 0.53 MiB
      XC: 0.00 MiB
      Poisson: 0.00 MiB
      vbar: 0.02 MiB
    Wavefunctions: 0.22 MiB
      Arrays psit_nG: 0.03 MiB
      Eigensolver: 0.06 MiB
      Projections: 0.00 MiB
      Projectors: 0.04 MiB
      PW-descriptor: 0.09 MiB

Total number of cores used: 1

Number of atoms: 3
Number of atomic orbitals: 6
Number of bands in calculation: 6
Number of valence electrons: 8
Bands to converge: occupied

... initialized

Initializing position-dependent things.

Density initialized from atomic densities
Creating initial wave functions:
  6 bands from LCAO basis set

    .--------------.  
   /|              |  
  / |              |  
 *  |              |  
 |  |    H H       |  
 |  |     O        |  
 |  .--------------.  
 | /              /   
 |/              /    
 *--------------*     

Positions:
   0 O      3.036900    2.500000    2.500000    ( 0.0000,  0.0000,  0.0000)
   1 H      3.573900    2.810000    2.500000    ( 0.0000,  0.0000,  0.0000)
   2 H      2.500000    2.810000    2.500000    ( 0.0000,  0.0000,  0.0000)

Unit cell:
           periodic     x           y           z      points  spacing
  1. axis:    no     6.073900    0.000000    0.000000    18     0.3374
  2. axis:    no     0.000000    5.310000    0.000000    15     0.3540
  3. axis:    no     0.000000    0.000000    5.000000    15     0.3333

  Lengths:   6.073900   5.310000   5.000000
  Angles:   90.000000  90.000000  90.000000

Effective grid spacing dv^(1/3) = 0.3415

     iter     time        total  log10-change:
                         energy   eigst   dens
iter:   1 14:51:59    49.751949
iter:   2 14:51:59    50.053033   -1.37  -0.56
iter:   3 14:51:59    52.818748   -0.82  -0.59
iter:   4 14:51:59    52.806346   -1.73  -1.06
iter:   5 14:51:59    52.923963   -1.40  -1.15
iter:   6 14:51:59    52.962634   -2.68  -1.68
iter:   7 14:51:59    52.958524   -3.76  -2.14
iter:   8 14:51:59    52.965262   -3.02  -1.95
iter:   9 14:51:59    52.965221   -4.23  -3.29
iter:  10 14:51:59    52.965218c  -5.84  -3.55
iter:  11 14:51:59    52.965212c  -5.44  -3.60
iter:  12 14:51:59    52.965219c  -5.95  -3.45
iter:  13 14:51:59    52.965218c  -6.37  -3.87
iter:  14 14:51:59    52.965219c  -8.15c -3.88
iter:  15 14:51:59    52.965220c  -6.68  -3.94
iter:  16 14:51:59    52.965219c  -7.48c -4.32c

Converged after 16 iterations.

Dipole moment: (0.000014, 0.165922, 0.000000) |e|*Ang

Energy contributions relative to reference atoms: (reference = -2052.165985)

Kinetic:        -39.717964
Potential:     +101.832625
External:        +0.000000
XC:             -10.331383
Entropy (-ST):   +0.000000
Local:           +1.181941
SIC:             +0.000000
--------------------------
Free energy:    +52.965219
Extrapolated:   +52.965219

 Band  Eigenvalues  Occupancy
    0    -38.68315    2.00000
    1    -17.69209    2.00000
    2     -9.33181    2.00000
    3     -6.73702    2.00000
    4     -1.06516    0.00000
    5      3.17156    0.00000

Fermi level: -3.90109

Gap: 5.672 eV
Transition (v -> c):
  (s=0, k=0, n=3, [0.00, 0.00, 0.00]) -> (s=0, k=0, n=4, [0.00, 0.00, 0.00])
No difference between direct/indirect transitions
