
  ___ ___ ___ _ _ _  
 |   |   |_  | | | | 
 | | | | | . | | | | 
 |__ |  _|___|_____|  25.1.0
 |___|_|             

User:   aryanshukla@tech-Precision-3650-Tower
Date:   Thu Jul  3 14:52:00 2025
Arch:   x86_64
Pid:    1035534
CWD:    /home/aryanshukla/Desktop/Experiments/Crystals
Python: 3.12.9
gpaw:   /home/aryanshukla/Desktop/Experiments/exps/lib/python3.12/site-packages/gpaw
_gpaw:  /home/aryanshukla/Desktop/Experiments/exps/lib/python3.12/site-packages/
        _gpaw.cpython-312-x86_64-linux-gnu.so
ase:    /home/aryanshukla/Desktop/Experiments/exps/lib/python3.12/site-packages/ase (version 3.24.0)
numpy:  /home/aryanshukla/Desktop/Experiments/exps/lib/python3.12/site-packages/numpy (version 2.2.4)
scipy:  /home/aryanshukla/Desktop/Experiments/exps/lib/python3.12/site-packages/scipy (version 1.15.2)
libxc:  4.3.4
units:  Angstrom and eV
cores: 1
OpenMP: False
OMP_NUM_THREADS: 1

Input parameters:
  kpts: [1 1 1]
  mode: {ecut: 150.0,
         name: pw}

System changes: positions, numbers, cell, pbc, initial_charges, initial_magmoms 

Initialize ...

species:
  F:
    name: Fluorine
    id: d09a878bc7f92182f687813b9c0fd01f
    Z: 9.0
    valence: 7
    core: 2
    charge: 0.0
    file: /home/aryanshukla/PAWDATA/gpaw-setups-24.11.0/F.LDA.gz
    compensation charges: {type: gauss,
                           rc: 0.20,
                           lmax: 2}
    cutoffs: {filter: 1.14,
              core: 0.74}
    projectors:
      #              energy  rcut
      - 2s(2.00)   -29.647   0.635
      - 2p(5.00)   -11.293   0.635
      -  s          -2.435   0.635
      -  p          15.918   0.635
      -  d           0.000   0.635
  
    # Using partial waves for F as LCAO basis

  H:
    name: Hydrogen
    id: 4766778ce56282eaa64abeb28b7c1de3
    Z: 1.0
    valence: 1
    core: 0
    charge: 0.0
    file: /home/aryanshukla/PAWDATA/gpaw-setups-24.11.0/H.LDA.gz
    compensation charges: {type: gauss,
                           rc: 0.15,
                           lmax: 2}
    cutoffs: {filter: 0.85,
              core: 0.53}
    projectors:
      #              energy  rcut
      - 1s(1.00)    -6.353   0.476
      -  s          20.858   0.476
      -  p           0.000   0.476
  
    # Using partial waves for H as LCAO basis

Reference energy: -2711.087750  # eV

Spin-paired calculation

Convergence criteria:
 Maximum [total energy] change in last 3 cyles: 0.0005 eV / valence electron
 Maximum integral of absolute [dens]ity change: 0.0001 electrons / valence electron
 Maximum integral of absolute [eigenst]ate change: 4e-08 eV^2 / valence electron
 Maximum number of scf [iter]ations: 333
 (Square brackets indicate name in SCF output, whereas a 'c' in
 the SCF output indicates the quantity has converged.)

Symmetries present (total): 8

  ( 1  0  0)  ( 1  0  0)  ( 1  0  0)  ( 1  0  0)  ( 1  0  0)  ( 1  0  0)
  ( 0  1  0)  ( 0  1  0)  ( 0  0  1)  ( 0  0  1)  ( 0  0 -1)  ( 0  0 -1)
  ( 0  0  1)  ( 0  0 -1)  ( 0  1  0)  ( 0 -1  0)  ( 0  1  0)  ( 0 -1  0)

  ( 1  0  0)  ( 1  0  0)
  ( 0 -1  0)  ( 0 -1  0)
  ( 0  0  1)  ( 0  0 -1)

1 k-point (Gamma)
1 k-point in the irreducible part of the Brillouin zone
       k-points in crystal coordinates                weights
   0:     0.00000000    0.00000000    0.00000000          1/1

Wave functions: Plane wave expansion
  Cutoff energy: 150.000 eV
  Number of coefficients: 599 (reduced to 300)
  Pulay-stress correction: 0.000000 eV/Ang^3 (de/decut=0.000000)
  Using Numpy's FFT
  ScaLapack parameters: grid=1x1, blocksize=None
  Wavefunction extrapolation:
    Improved wavefunction reuse through dual PAW basis 

Occupation numbers: # Zero width 

Eigensolver
   Davidson(niter=2) 

Densities:
  Coarse grid: 18*15*15 grid
  Fine grid: 36*30*30 grid
  Total Charge: 0.000000 

Density mixing:
  Method: separate
  Backend: pulay
  Linear mixing parameter: 0.05
  old densities: 5
  Damping of long wavelength oscillations: 50 

Hamiltonian:
  XC and Coulomb potentials evaluated on a 36*30*30 grid
  Using the LDA Exchange-Correlation functional
  External potential:
    NoExternalPotential
 

Memory estimate:
  Process memory now: 618.82 MiB
  Calculator: 2.68 MiB
    Density: 1.94 MiB
      Arrays: 0.80 MiB
      Localized functions: 0.83 MiB
      Mixer: 0.31 MiB
    Hamiltonian: 0.55 MiB
      Arrays: 0.53 MiB
      XC: 0.00 MiB
      Poisson: 0.00 MiB
      vbar: 0.02 MiB
    Wavefunctions: 0.20 MiB
      Arrays psit_nG: 0.02 MiB
      Eigensolver: 0.05 MiB
      Projections: 0.00 MiB
      Projectors: 0.04 MiB
      PW-descriptor: 0.08 MiB

Total number of cores used: 1

Number of atoms: 2
Number of atomic orbitals: 5
Number of bands in calculation: 5
Number of valence electrons: 8
Bands to converge: occupied

... initialized

Initializing position-dependent things.

Density initialized from atomic densities
Creating initial wave functions:
  5 bands from LCAO basis set

    .--------------.  
   /|              |  
  / |              |  
 *  |              |  
 |  |              |  
 |  |    H F       |  
 |  .--------------.  
 | /              /   
 |/              /    
 *--------------*     

Positions:
   0 F      3.500000    2.500000    2.500000    ( 0.0000,  0.0000,  0.0000)
   1 H      2.500000    2.500000    2.500000    ( 0.0000,  0.0000,  0.0000)

Unit cell:
           periodic     x           y           z      points  spacing
  1. axis:    no     6.000000    0.000000    0.000000    18     0.3333
  2. axis:    no     0.000000    5.000000    0.000000    15     0.3333
  3. axis:    no     0.000000    0.000000    5.000000    15     0.3333

  Lengths:   6.000000   5.000000   5.000000
  Angles:   90.000000  90.000000  90.000000

Effective grid spacing dv^(1/3) = 0.3333

     iter     time        total  log10-change:
                         energy   eigst   dens
iter:   1 14:52:00    40.011589
iter:   2 14:52:00    43.324448   -0.67  -0.47
iter:   3 14:52:00    62.110679   +0.64  -0.48
iter:   4 14:52:00    62.271345   -1.25  -0.57
iter:   5 14:52:00    64.400566   -0.31  -0.57
iter:   6 14:52:00    64.705976   -1.62  -1.33
iter:   7 14:52:00    64.669580   -1.75  -1.55
iter:   8 14:52:00    64.738465   -1.79  -1.29
iter:   9 14:52:00    64.740957   -3.46  -1.99
iter:  10 14:52:00    64.743858   -3.58  -2.08
iter:  11 14:52:00    64.743682c  -4.50  -2.40
iter:  12 14:52:00    64.744089c  -4.33  -2.54
iter:  13 14:52:00    64.744100c  -4.94  -3.23
iter:  14 14:52:00    64.744100c  -6.50  -3.35
iter:  15 14:52:00    64.744102c  -6.83  -3.49
iter:  16 14:52:00    64.744104c  -6.47  -3.54
iter:  17 14:52:00    64.744103c  -7.39  -3.61
iter:  18 14:52:00    64.744103c  -8.40c -3.69
iter:  19 14:52:00    64.744103c  -7.75c -3.70
iter:  20 14:52:00    64.744103c  -8.22c -3.98
iter:  21 14:52:00    64.744103c  -8.82c -3.93
iter:  22 14:52:00    64.744103c  -7.03  -3.93
iter:  23 14:52:00    64.744103c  -8.55c -4.60c

Converged after 23 iterations.

Dipole moment: (-0.282010, 0.000000, 0.000000) |e|*Ang

Energy contributions relative to reference atoms: (reference = -2711.087750)

Kinetic:       -216.386511
Potential:     +262.486620
External:        +0.000000
XC:             +17.124732
Entropy (-ST):   +0.000000
Local:           +1.519262
SIC:             +0.000000
--------------------------
Free energy:    +64.744103
Extrapolated:   +64.744103

 Band  Eigenvalues  Occupancy
    0    -42.43213    2.00000
    1    -13.55196    2.00000
    2     -8.17452    2.00000
    3     -8.17357    2.00000
    4     -1.69605    0.00000

Fermi level: -4.93481

Gap: 6.478 eV
Transition (v -> c):
  (s=0, k=0, n=3, [0.00, 0.00, 0.00]) -> (s=0, k=0, n=4, [0.00, 0.00, 0.00])
No difference between direct/indirect transitions
